
    -----------------------------------------------------------------------
          Psi4: An Open-Source Ab Initio Electronic Structure Package
                               Psi4 1.1 release

                         Git: Rev {HEAD} add49b9 


    R. M. Parrish, L. A. Burns, D. G. A. Smith, A. C. Simmonett,
    A. E. DePrince III, E. G. Hohenstein, U. Bozkaya, A. Yu. Sokolov,
    R. Di Remigio, R. M. Richard, J. F. Gonthier, A. M. James,
    H. R. McAlexander, A. Kumar, M. Saitow, X. Wang, B. P. Pritchard,
    P. Verma, H. F. Schaefer III, K. Patkowski, R. A. King, E. F. Valeev,
    F. A. Evangelista, J. M. Turney, T. D. Crawford, and C. D. Sherrill,
    J. Chem. Theory Comput. in press (2017).
    (doi: 10.1021/acs.jctc.7b00174)

    -----------------------------------------------------------------------


    Psi4 started on: Monday, 06 August 2018 12:24PM

    Process ID:  53742
    PSIDATADIR: /beegfs/DATA/mobley/limvt/local/miniconda3/envs/oepython3/share/psi4
    Memory:     500.0 MiB
    Threads:    1
    
  ==> Input File <==

--------------------------------------------------------------------------
memory 1.5 Gb
molecule pyrnit_1_constituent_1_improper_1 {
  0 1
  C    -0.4768    -0.1529     -1.1279
  C     0.8418    -0.0030      0.9024
  N    -0.4422    -0.0707      0.3193
  H     0.1035    -1.0328     -1.4578
  H    -0.0556     0.7395     -1.6475
  H    -1.5170    -0.2928     -1.4684
  H     1.5367    -0.6909      0.6031
  H     0.8503     0.2720      1.9355
  H     1.3834     1.0828      0.4217
  H    -1.0755     0.6626      0.6380
  units angstrom
}

freeze_list = """
  3 xyz
  1 xyz
  10 xyz
  2 xyz
"""
set optking frozen_cartesian $freeze_list
set optking dynamic_level = 1
set optking consecutive_backsteps = 2
set optking intrafrag_step_limit = 0.1
set optking interfrag_step_limit = 0.1

set basis def2-SV(P)
set df_basis_mp2 def2-SV(P)-ri
set freeze_core True
optimize('mp2')--------------------------------------------------------------------------

  Memory set to   1.397 GiB by Python driver.
gradient() will perform analytic gradient computation.

*** tstart() called on c-13-32.gp.local
*** at Mon Aug  6 12:24:10 2018

    SCF Algorithm Type (re)set to DF.

*** tstart() called on c-13-32.gp.local
*** at Mon Aug  6 12:24:10 2018

   => Loading Basis Set <=

    Name: DEF2-SV(P)
    Role: ORBITAL
    Keyword: BASIS
    atoms 1-2  entry C          line    87 file /beegfs/DATA/mobley/limvt/local/miniconda3/envs/oepython3/share/psi4/basis/def2-sv_p_.gbs 
    atoms 3    entry N          line   107 file /beegfs/DATA/mobley/limvt/local/miniconda3/envs/oepython3/share/psi4/basis/def2-sv_p_.gbs 
    atoms 4-10 entry H          line    14 file /beegfs/DATA/mobley/limvt/local/miniconda3/envs/oepython3/share/psi4/basis/def2-sv_p_.gbs 


         ---------------------------------------------------------
                                   SCF
            by Justin Turney, Rob Parrish, and Andy Simmonett
                              RHF Reference
                        1 Threads,   1430 MiB Core
         ---------------------------------------------------------

  ==> Geometry <==

    Molecular point group: c1
    Full point group: C1

    Geometry (in Angstrom), charge = 0, multiplicity = 1:

       Center              X                  Y                   Z               Mass       
    ------------   -----------------  -----------------  -----------------  -----------------
           C         -0.476800000000    -0.152900000000    -1.127900000000    12.000000000000
           C          0.841800000000    -0.003000000000     0.902400000000    12.000000000000
           N         -0.442200000000    -0.070700000000     0.319300000000    14.003074004780
           H          0.103500000000    -1.032800000000    -1.457800000000     1.007825032070
           H         -0.055600000000     0.739500000000    -1.647500000000     1.007825032070
           H         -1.517000000000    -0.292800000000    -1.468400000000     1.007825032070
           H          1.536700000000    -0.690900000000     0.603100000000     1.007825032070
           H          0.850300000000     0.272000000000     1.935500000000     1.007825032070
           H          1.383400000000     1.082800000000     0.421700000000     1.007825032070
           H         -1.075500000000     0.662600000000     0.638000000000     1.007825032070

  Running in c1 symmetry.

  Rotational constants: A =      1.16812  B =      0.30958  C =      0.27587 [cm^-1]
  Rotational constants: A =  35019.39755  B =   9280.89391  C =   8270.30755 [MHz]
  Nuclear repulsion =   84.279087319845132

  Charge       = 0
  Multiplicity = 1
  Electrons    = 26
  Nalpha       = 13
  Nbeta        = 13

  ==> Algorithm <==

  SCF Algorithm Type is DF.
  DIIS enabled.
  MOM disabled.
  Fractional occupation disabled.
  Guess Type is SAD.
  Energy threshold   = 1.00e-10
  Density threshold  = 1.00e-10
  Integral threshold = 0.00e+00

  ==> Primary Basis <==

  Basis Set: DEF2-SV(P)
    Blend: DEF2-SV(P)
    Number of shells: 32
    Number of basis function: 56
    Number of Cartesian functions: 59
    Spherical Harmonics?: true
    Max angular momentum: 2

   => Loading Basis Set <=

    Name: (DEF2-SV(P) AUX)
    Role: JKFIT
    Keyword: DF_BASIS_SCF
    atoms 1-2  entry C          line   202 file /beegfs/DATA/mobley/limvt/local/miniconda3/envs/oepython3/share/psi4/basis/def2-sv_p_-jkfit.gbs 
    atoms 3    entry N          line   262 file /beegfs/DATA/mobley/limvt/local/miniconda3/envs/oepython3/share/psi4/basis/def2-sv_p_-jkfit.gbs 
    atoms 4-10 entry H          line    22 file /beegfs/DATA/mobley/limvt/local/miniconda3/envs/oepython3/share/psi4/basis/def2-sv_p_-jkfit.gbs 

  ==> Pre-Iterations <==

   -------------------------------------------------------
    Irrep   Nso     Nmo     Nalpha   Nbeta   Ndocc  Nsocc
   -------------------------------------------------------
     A         56      56       0       0       0       0
   -------------------------------------------------------
    Total      56      56      13      13      13       0
   -------------------------------------------------------

  ==> Integral Setup <==

  ==> DFJK: Density-Fitted J/K Matrices <==

    J tasked:                  Yes
    K tasked:                  Yes
    wK tasked:                  No
    OpenMP threads:              1
    Integrals threads:           1
    Memory (MB):              1072
    Algorithm:                Core
    Integral Cache:           NONE
    Schwarz Cutoff:          1E-12
    Fitting Condition:       1E-12

   => Auxiliary Basis Set <=

  Basis Set: (DEF2-SV(P) AUX)
    Blend: DEF2-SV_P_-JKFIT
    Number of shells: 117
    Number of basis function: 353
    Number of Cartesian functions: 411
    Spherical Harmonics?: true
    Max angular momentum: 4

  Minimum eigenvalue in the overlap matrix is 7.8375866000E-03.
  Using Symmetric Orthogonalization.

  SCF Guess: Superposition of Atomic Densities via on-the-fly atomic UHF.

  ==> Iterations <==

                           Total Energy        Delta E     RMS |[F,P]|

   @DF-RHF iter   0:  -134.97060338327881   -1.34971e+02   5.73246e-02 
   @DF-RHF iter   1:  -134.01579249546955    9.54811e-01   5.58675e-03 
   @DF-RHF iter   2:  -134.08127427406259   -6.54818e-02   2.21568e-03 DIIS
   @DF-RHF iter   3:  -134.08966235122392   -8.38808e-03   8.78872e-04 DIIS
   @DF-RHF iter   4:  -134.09135040672663   -1.68806e-03   1.25062e-04 DIIS
   @DF-RHF iter   5:  -134.09141493217641   -6.45254e-05   3.20804e-05 DIIS
   @DF-RHF iter   6:  -134.09141938988338   -4.45771e-06   6.02762e-06 DIIS
   @DF-RHF iter   7:  -134.09141955212411   -1.62241e-07   1.87464e-06 DIIS
   @DF-RHF iter   8:  -134.09141956678064   -1.46565e-08   6.62471e-07 DIIS
   @DF-RHF iter   9:  -134.09141956873802   -1.95737e-09   1.93389e-07 DIIS
   @DF-RHF iter  10:  -134.09141956898517   -2.47155e-10   4.22623e-08 DIIS
   @DF-RHF iter  11:  -134.09141956899620   -1.10276e-11   7.51195e-09 DIIS
   @DF-RHF iter  12:  -134.09141956899657   -3.69482e-13   1.56162e-09 DIIS
   @DF-RHF iter  13:  -134.09141956899657    0.00000e+00   4.75188e-10 DIIS
   @DF-RHF iter  14:  -134.09141956899663   -5.68434e-14   1.19236e-10 DIIS
   @DF-RHF iter  15:  -134.09141956899663    0.00000e+00   2.97387e-11 DIIS

  ==> Post-Iterations <==

    Orbital Energies (a.u.)
    -----------------------

    Doubly Occupied:                                                      

       1A    -15.537344     2A    -11.254784     3A    -11.246540  
       4A     -1.195663     5A     -0.939896     6A     -0.843797  
       7A     -0.674441     8A     -0.619569     9A     -0.598650  
      10A     -0.542325    11A     -0.522852    12A     -0.493926  
      13A     -0.344459  

    Virtual:                                                              

      14A      0.173150    15A      0.217180    16A      0.222124  
      17A      0.248594    18A      0.266290    19A      0.281168  
      20A      0.295721    21A      0.365935    22A      0.432292  
      23A      0.603277    24A      0.630525    25A      0.661864  
      26A      0.671558    27A      0.776878    28A      0.824791  
      29A      0.873411    30A      0.898252    31A      0.920187  
      32A      0.941994    33A      0.959826    34A      0.976315  
      35A      1.023778    36A      1.045505    37A      1.119181  
      38A      1.167511    39A      1.300734    40A      1.345161  
      41A      1.405245    42A      1.812585    43A      1.938056  
      44A      2.069014    45A      2.171975    46A      2.300483  
      47A      2.345897    48A      2.360612    49A      2.408717  
      50A      2.436911    51A      2.468080    52A      2.912428  
      53A      2.965329    54A      2.981674    55A      3.279663  
      56A      3.404628  

    Final Occupation by Irrep:
              A 
    DOCC [    13 ]

  Energy converged.

  @DF-RHF Final Energy:  -134.09141956899663

   => Energetics <=

    Nuclear Repulsion Energy =             84.2790873198451322
    One-Electron Energy =                -347.1125188885465036
    Two-Electron Energy =                 128.7420119997047436
    DFT Exchange-Correlation Energy =       0.0000000000000000
    Empirical Dispersion Energy =           0.0000000000000000
    PCM Polarization Energy =               0.0000000000000000
    EFP Energy =                            0.0000000000000000
    Total Energy =                       -134.0914195689966277



Properties will be evaluated at   0.000000,   0.000000,   0.000000 Bohr

Properties computed using the SCF density matrix

  Nuclear Dipole Moment: (a.u.)
     X:     0.6055      Y:    -1.3037      Z:    -0.1763

  Electronic Dipole Moment: (a.u.)
     X:    -0.6424      Y:     1.5196      Z:     0.1208

  Dipole Moment: (a.u.)
     X:    -0.0369      Y:     0.2159      Z:    -0.0555     Total:     0.2259

  Dipole Moment: (Debye)
     X:    -0.0938      Y:     0.5487      Z:    -0.1410     Total:     0.5742


*** tstop() called on c-13-32.gp.local at Mon Aug  6 12:24:16 2018
Module time:
	user time   =       1.95 seconds =       0.03 minutes
	system time =       0.04 seconds =       0.00 minutes
	total time  =          6 seconds =       0.10 minutes
Total time:
	user time   =       1.96 seconds =       0.03 minutes
	system time =       0.04 seconds =       0.00 minutes
	total time  =          6 seconds =       0.10 minutes

  //>>>>>>>>>>>>>>>>>>>>>>>>>>>>>>>>>>>//
  //               DFMP2               //
  //<<<<<<<<<<<<<<<<<<<<<<<<<<<<<<<<<<<//

   => Loading Basis Set <=

    Name: DEF2-SV(P)-RI
    Role: RIFIT
    Keyword: DF_BASIS_MP2
    atoms 1-2  entry C          line   152 file /beegfs/DATA/mobley/limvt/local/miniconda3/envs/oepython3/share/psi4/basis/def2-sv_p_-ri.gbs 
    atoms 3    entry N          line   192 file /beegfs/DATA/mobley/limvt/local/miniconda3/envs/oepython3/share/psi4/basis/def2-sv_p_-ri.gbs 
    atoms 4-10 entry H          line    21 file /beegfs/DATA/mobley/limvt/local/miniconda3/envs/oepython3/share/psi4/basis/def2-sv_p_-ri.gbs 

	 --------------------------------------------------------
	                          DF-MP2                         
	      2nd-Order Density-Fitted Moller-Plesset Theory     
	              RMP2 Wavefunction,   1 Threads             
	                                                         
	        Rob Parrish, Justin Turney, Andy Simmonett,      
	           Ed Hohenstein, and C. David Sherrill          
	 --------------------------------------------------------

   => Auxiliary Basis Set <=

  Basis Set: DEF2-SV(P)-RI
    Blend: DEF2-SV(P)-RI
    Number of shells: 90
    Number of basis function: 242
    Number of Cartesian functions: 270
    Spherical Harmonics?: true
    Max angular momentum: 3

	 --------------------------------------------------------
	                 NBF =    56, NAUX =   242
	 --------------------------------------------------------
	   CLASS    FOCC     OCC    AOCC    AVIR     VIR    FVIR
	   PAIRS       3      13      10      43      43       0
	 --------------------------------------------------------


         ------------------------------------------------------------
                                     CPHF                           
                                  Rob Parrish                       
         ------------------------------------------------------------

  ==> Geometry <==

    Molecular point group: c1
    Full point group: C1

    Geometry (in Angstrom), charge = 0, multiplicity = 1:

       Center              X                  Y                   Z               Mass       
    ------------   -----------------  -----------------  -----------------  -----------------
           C         -0.476800000000    -0.152900000000    -1.127900000000    12.000000000000
           C          0.841800000000    -0.003000000000     0.902400000000    12.000000000000
           N         -0.442200000000    -0.070700000000     0.319300000000    14.003074004780
           H          0.103500000000    -1.032800000000    -1.457800000000     1.007825032070
           H         -0.055600000000     0.739500000000    -1.647500000000     1.007825032070
           H         -1.517000000000    -0.292800000000    -1.468400000000     1.007825032070
           H          1.536700000000    -0.690900000000     0.603100000000     1.007825032070
           H          0.850300000000     0.272000000000     1.935500000000     1.007825032070
           H          1.383400000000     1.082800000000     0.421700000000     1.007825032070
           H         -1.075500000000     0.662600000000     0.638000000000     1.007825032070

  Nuclear repulsion =   84.279087319845132
  Reference energy  = -134.091419568996628

  ==> Basis Set <==

  Basis Set: DEF2-SV(P)
    Blend: DEF2-SV(P)
    Number of shells: 32
    Number of basis function: 56
    Number of Cartesian functions: 59
    Spherical Harmonics?: true
    Max angular momentum: 2

  ==> CGRSolver (by Rob Parrish) <==

   Number of roots    =         1
   Preconditioning    =    JACOBI
   Convergence cutoff =     1E-06
   Maximum iterations =       100

  ==> CPHFRHamiltonian (by Rob Parrish) <== 

  ==> DFJK: Density-Fitted J/K Matrices <==

    J tasked:                  Yes
    K tasked:                  Yes
    wK tasked:                  No
    OpenMP threads:              1
    Integrals threads:           1
    Memory (MB):              1072
    Algorithm:                Core
    Integral Cache:           NONE
    Schwarz Cutoff:          1E-12
    Fitting Condition:       1E-12

   => Auxiliary Basis Set <=

  Basis Set: (DEF2-SV(P) AUX)
    Blend: DEF2-SV_P_-JKFIT
    Number of shells: 117
    Number of basis function: 353
    Number of Cartesian functions: 411
    Spherical Harmonics?: true
    Max angular momentum: 4

  ==> CPHF Iterations <==

  => Iterations <=

             Iter  Converged  Remaining    Residual
  CGR           1          0          1   1.015E-01
  CGR           2          0          1   1.810E-02
  CGR           3          0          1   7.272E-03
  CGR           4          0          1   1.065E-03
  CGR           5          0          1   2.687E-04
  CGR           6          0          1   5.361E-05
  CGR           7          0          1   1.802E-05
  CGR           8          0          1   4.143E-06
  CGR           9          1          0   7.892E-07

    CGRSolver converged.

  ==> DFCorrGrad: Density-Fitted Correlated Gradients <==

    OpenMP threads:              1
    Integrals threads:           1
    Memory (MB):              1072
    Schwarz Cutoff:          0E+00
    Fitting Condition:       1E-12

   => Auxiliary Basis Set <=

  Basis Set: (DEF2-SV(P) AUX)
    Blend: DEF2-SV_P_-JKFIT
    Number of shells: 117
    Number of basis function: 353
    Number of Cartesian functions: 411
    Spherical Harmonics?: true
    Max angular momentum: 4

	-----------------------------------------------------------
	 ==================> DF-MP2 Energies <==================== 
	-----------------------------------------------------------
	 Reference Energy          =    -134.0914195689966277 [Eh]
	 Singles Energy            =      -0.0000000000000000 [Eh]
	 Same-Spin Energy          =      -0.0979467721692955 [Eh]
	 Opposite-Spin Energy      =      -0.3185484369063863 [Eh]
	 Correlation Energy        =      -0.4164952090756818 [Eh]
	 Total Energy              =    -134.5079147780723190 [Eh]
	-----------------------------------------------------------
	 ================> DF-SCS-MP2 Energies <================== 
	-----------------------------------------------------------
	 SCS Same-Spin Scale       =       0.3333333333333333 [-]
	 SCS Opposite-Spin Scale   =       1.2000000000000000 [-]
	 SCS Same-Spin Energy      =      -0.0326489240564318 [Eh]
	 SCS Opposite-Spin Energy  =      -0.3822581242876636 [Eh]
	 SCS Correlation Energy    =      -0.4149070483440954 [Eh]
	 SCS Total Energy          =    -134.5063266173407328 [Eh]
	-----------------------------------------------------------


  -Total Gradient:
     Atom            X                  Y                   Z
    ------   -----------------  -----------------  -----------------
       1       -0.002269623444     0.001712906617    -0.004006118888
       2        0.000587590499    -0.139509136589     0.039281128025
       3        0.024372505675     0.023066362631     0.004692244647
       4        0.000304546592    -0.000147035264     0.000233912759
       5       -0.001657999828    -0.001073588293    -0.001240375583
       6       -0.000174292938    -0.000201848108    -0.000366493066
       7       -0.033871526828     0.057434773421     0.012530028528
       8        0.004631660864     0.010856186734    -0.026432839550
       9        0.013794743821     0.046781616796    -0.021458406002
      10       -0.005717604414     0.001079762055    -0.003233080870


*** tstop() called on c-13-32.gp.local at Mon Aug  6 12:24:24 2018
Module time:
	user time   =       5.36 seconds =       0.09 minutes
	system time =       0.10 seconds =       0.00 minutes
	total time  =         14 seconds =       0.23 minutes
Total time:
	user time   =       5.37 seconds =       0.09 minutes
	system time =       0.10 seconds =       0.00 minutes
	total time  =         14 seconds =       0.23 minutes

			-----------------------------------------
			 OPTKING 2.0: for geometry optimizations 
			  - R.A. King,  Bethel University        
			-----------------------------------------
	At level 1: Red. Int., RFO, no backsteps, dynamic trust

	Internal coordinates to be generated automatically.
	Detected frag 1 with atoms:  1 2 3 4 5 6 7 8 9 10
	---Fragment 1 Bond Connectivity---
	 1 : 3 4 5 6
	 2 : 3 7 8 9
	 3 : 1 2 10
	 4 : 1
	 5 : 1
	 6 : 1
	 7 : 2
	 8 : 2
	 9 : 2
	 10 : 3

	Assuming in current code that numbering for constraints corresponds to unified fragment.
	---Fragment 1 Geometry and Gradient---
	 C          -0.9010214202       -0.2889391257       -2.1314221053
	 C           1.5907714587       -0.0056691784        1.7052888623
	 N          -0.8356368960       -0.1336036376        0.6033895542
	 H           0.1955866548       -1.9517091500       -2.7548427565
	 H          -0.1050687730        1.3974524753       -3.1133238039
	 H          -2.8667145436       -0.5533118117       -2.7748738535
	 H           2.9039421484       -1.3056117852        1.1396938307
	 H           1.6068341308        0.5140055081        3.6575649302
	 H           2.6142471322        2.0461954567        0.7968975102
	 H          -2.0324004559        1.2521325357        1.2056452728
	            -0.0022696234        0.0017129066       -0.0040061189
	             0.0005875905       -0.1395091366        0.0392811280
	             0.0243725057        0.0230663626        0.0046922446
	             0.0003045466       -0.0001470353        0.0002339128
	            -0.0016579998       -0.0010735883       -0.0012403756
	            -0.0001742929       -0.0002018481       -0.0003664931
	            -0.0338715268        0.0574347734        0.0125300285
	             0.0046316609        0.0108561867       -0.0264328396
	             0.0137947438        0.0467816168       -0.0214584060
	            -0.0057176044        0.0010797621       -0.0032330809

	Previous optimization step data not found.  Starting new optimization.

	---Fragment 1 Intrafragment Coordinates---
	 - Coordinate -           - BOHR/RAD -       - ANG/DEG -
	 R(1,3)           =         2.740000	       1.449945
	 R(1,4)           =         2.087105	       1.104448
	 R(1,5)           =         2.107508	       1.115245
	 R(1,6)           =         2.085155	       1.103417
	 R(2,3)           =         2.667959	       1.411823
	 R(2,7)           =         1.932399	       1.022581
	 R(2,8)           =         2.020322	       1.069108
	 R(2,9)           =         2.466339	       1.305130
	 R(3,10)          =         1.927491	       1.019984
	 B(1,3,2)         =         2.022669	     115.890394
	 B(1,3,10)        =         1.915381	     109.743229
	 B(2,3,10)        =         1.983574	     113.650433
	 B(3,1,4)         =         1.907908	     109.315100
	 B(3,1,5)         =         1.993961	     114.245558
	 B(3,1,6)         =         1.915254	     109.735975
	 B(3,2,7)         =         2.054303	     117.702890
	 B(3,2,8)         =         2.002773	     114.750434
	 B(3,2,9)         =         1.839188	     105.377737
	 B(4,1,5)         =         1.875374	     107.451031
	 B(4,1,6)         =         1.877725	     107.585746
	 B(5,1,6)         =         1.889903	     108.283445
	 B(7,2,8)         =         2.038084	     116.773615
	 B(7,2,9)         =         1.741480	      99.779461
	 B(8,2,9)         =         1.709859	      97.967690
	 D(1,3,2,7)       =        -0.864333	     -49.522609
	 D(1,3,2,8)       =         2.916881	     167.124984
	 D(1,3,2,9)       =         1.056979	      60.560434
	 D(2,3,1,4)       =         0.997205	      57.135656
	 D(2,3,1,5)       =        -1.104562	     -63.286712
	 D(2,3,1,6)       =         3.052625	     174.902522
	 D(4,1,3,10)      =        -3.010280	    -172.476340
	 D(5,1,3,10)      =         1.171138	      67.101291
	 D(6,1,3,10)      =        -0.954860	     -54.709475
	 D(7,2,3,10)      =        -3.107041	    -178.020315
	 D(8,2,3,10)      =         0.674173	      38.627278
	 D(9,2,3,10)      =        -1.185729	     -67.937273
	*R(3,X)           =        -0.835637	      -0.442200
	*R(3,Y)           =        -0.133604	      -0.070700
	*R(3,Z)           =         0.603390	       0.319300
	*R(1,X)           =        -0.901021	      -0.476800
	*R(1,Y)           =        -0.288939	      -0.152900
	*R(1,Z)           =        -2.131422	      -1.127900
	*R(10,X)          =        -2.032400	      -1.075500
	*R(10,Y)          =         1.252133	       0.662600
	*R(10,Z)          =         1.205645	       0.638000
	*R(2,X)           =         1.590771	       0.841800
	*R(2,Y)           =        -0.005669	      -0.003000
	*R(2,Z)           =         1.705289	       0.902400

	Current energy   :      -134.5079147781

	Generating empirical Hessian (Schlegel '84) for each fragment.
	Taking RFO optimization step.
	Going to follow RFO solution 1.
	Using RFO vector 1.

	Determining step-restricting scale parameter for RS-RFO.
	Maximum step size allowed    0.10000

	 Iter      |step|        alpha        rfo_root  
	------------------------------------------------
	    0     0.47192       1.00000           1
	    1     0.30799       4.18970           1
	    2     0.20704      12.51344           1
	    3     0.14749      29.37695           1
	    4     0.11575      52.42235           1
	    5     0.10276      69.15500           1
	    6     0.10011      73.43964           1
	    7     0.10000      73.62911           1
	------------------------------------------------
	Norm of target step-size    0.10000
	Projected energy change by RFO approximation:        -0.0093886000

	Back-transformation to cartesian coordinates...
	Successfully converged to displaced geometry.

	Back-transformation to cartesian coordinates to adjust frozen coordinates...
	Successfully converged to displaced geometry.

	--- Internal Coordinate Step in ANG or DEG, aJ/ANG or AJ/DEG ---
	 ---------------------------------------------------------------------------
	   Coordinate                Previous        Force       Change         New 
	   ----------                --------       ------       ------       ------
	    1 R(1,3)          =      1.449945    -0.000000    -0.000000     1.449945
	    2 R(1,4)          =      1.104448    -0.001708    -0.000107     1.104342
	    3 R(1,5)          =      1.115245     0.007475     0.000472     1.115717
	    4 R(1,6)          =      1.103417    -0.002496    -0.000156     1.103261
	    5 R(2,3)          =      1.411823     0.000000    -0.000000     1.411823
	    6 R(2,7)          =      1.022581     0.538169     0.030427     1.053008
	    7 R(2,8)          =      1.069108     0.187128     0.011231     1.080339
	    8 R(2,9)          =      1.305130    -0.432927    -0.031590     1.273540
	    9 R(3,10)         =      1.019984     0.000000    -0.000000     1.019984
	   10 B(1,3,2)        =    115.890394     0.000000     0.000000   115.890394
	   11 B(1,3,10)       =    109.743229     0.000000     0.000000   109.743229
	   12 B(2,3,10)       =    113.650433     0.000000     0.000000   113.650433
	   13 B(3,1,4)        =    109.315100     0.000072     0.063471   109.378571
	   14 B(3,1,5)        =    114.245558    -0.000224    -0.198194   114.047364
	   15 B(3,1,6)        =    109.735975     0.000016     0.016102   109.752077
	   16 B(3,2,7)        =    117.702890    -0.001129    -1.030815   116.672075
	   17 B(3,2,8)        =    114.750434    -0.000379    -0.366000   114.384434
	   18 B(3,2,9)        =    105.377737     0.001810     1.682913   107.060650
	   19 B(4,1,5)        =    107.451031     0.000036     0.028760   107.479791
	   20 B(4,1,6)        =    107.585746     0.000002     0.005204   107.590950
	   21 B(5,1,6)        =    108.283445     0.000108     0.094790   108.378235
	   22 B(7,2,8)        =    116.773615     0.000069    -0.070087   116.703528
	   23 B(7,2,9)        =     99.779461     0.000152     0.205742    99.985202
	   24 B(8,2,9)        =     97.967690     0.000356     0.396914    98.364604
	   25 D(1,3,2,7)      =    -49.522609    -0.000233    -1.019332   -50.541942
	   26 D(1,3,2,8)      =    167.124984     0.000251     1.086714   168.211698
	   27 D(1,3,2,9)      =     60.560434    -0.000042    -0.178014    60.382419
	   28 D(2,3,1,4)      =     57.135656    -0.000000     0.001488    57.137144
	   29 D(2,3,1,5)      =    -63.286712     0.000011     0.051285   -63.235428
	   30 D(2,3,1,6)      =    174.902522     0.000012     0.054738   174.957261
	   31 D(4,1,3,10)     =   -172.476340    -0.000000     0.001488  -172.474853
	   32 D(5,1,3,10)     =     67.101291     0.000011     0.051285    67.152575
	   33 D(6,1,3,10)     =    -54.709475     0.000012     0.054738   -54.654736
	   34 D(7,2,3,10)     =   -178.020315    -0.000233    -1.019332  -179.039648
	   35 D(8,2,3,10)     =     38.627278     0.000251     1.086714    39.713992
	   36 D(9,2,3,10)     =    -67.937273    -0.000042    -0.178014   -68.115287
	   37 *R(3,X)         =     -0.442200    -0.000000     0.000000    -0.442200
	   38 *R(3,Y)         =     -0.070700     0.000000     0.000000    -0.070700
	   39 *R(3,Z)         =      0.319300     0.000000    -0.000000     0.319300
	   40 *R(1,X)         =     -0.476800    -0.000000    -0.000000    -0.476800
	   41 *R(1,Y)         =     -0.152900     0.000000    -0.000000    -0.152900
	   42 *R(1,Z)         =     -1.127900     0.000000     0.000000    -1.127900
	   43 *R(10,X)        =     -1.075500     0.000000    -0.000000    -1.075500
	   44 *R(10,Y)        =      0.662600     0.000000    -0.000000     0.662600
	   45 *R(10,Z)        =      0.638000     0.000000     0.000000     0.638000
	   46 *R(2,X)         =      0.841800     0.000000    -0.000000     0.841800
	   47 *R(2,Y)         =     -0.003000    -0.000000    -0.000000    -0.003000
	   48 *R(2,Z)         =      0.902400     0.000000     0.000000     0.902400
	 ---------------------------------------------------------------------------
	Successfully symmetrized geometry.

  ==> Convergence Check <==

  Measures of convergence in internal coordinates in au.
  Criteria marked as inactive (o), active & met (*), and active & unmet ( ).
  --------------------------------------------------------------------------------------------- ~
   Step     Total Energy     Delta E     MAX Force     RMS Force      MAX Disp      RMS Disp    ~
  --------------------------------------------------------------------------------------------- ~
    Convergence Criteria    1.00e-06 *    3.00e-04 *             o    1.20e-03 *             o  ~
  --------------------------------------------------------------------------------------------- ~
      1    -134.50791478   -1.35e+02      6.53e-02      1.38e-02 o    5.97e-02      1.44e-02 o  ~
  ---------------------------------------------------------------------------------------------

	Writing optimization data to binary file.
	Structure for next step:
	Cartesian Geometry (in Angstrom)
	    C    -0.4768000000  -0.1529000000  -1.1279000000
	    C     0.8418000000  -0.0030000000   0.9024000000
	    N    -0.4422000000  -0.0707000000   0.3193000000
	    H     0.1031650912  -1.0324616348  -1.4589323502
	    H    -0.0538417085   0.7411146290  -1.6442995264
	    H    -1.5168706479  -0.2918008827  -1.4686995548
	    H     1.5395301298  -0.7291933150   0.5947607524
	    H     0.8423450721   0.2572990907   1.9509117353
	    H     1.4024885975   1.0473722255   0.4504596962
	    H    -1.0755000000   0.6626000000   0.6380000000
			--------------------------
			 OPTKING Finished Execution 
			--------------------------

    Structure for next step:
    Molecular point group: c1
    Full point group: C1

    Geometry (in Angstrom), charge = 0, multiplicity = 1:

    C           -0.476800000001    -0.152900000011    -1.127899999998
    C            0.841799999998    -0.003000000011     0.902400000002
    N           -0.442199999990    -0.070699999964     0.319299999990
    H            0.103165091218    -1.032461634775    -1.458932350173
    H           -0.053841708537     0.741114629043    -1.644299526414
    H           -1.516870647858    -0.291800882674    -1.468699554825
    H            1.539530129776    -0.729193315012     0.594760752444
    H            0.842345072127     0.257299090712     1.950911735293
    H            1.402488597497     1.047372225487     0.450459696245
    H           -1.075500000007     0.662599999986     0.638000000006

gradient() will perform analytic gradient computation.

*** tstart() called on c-13-32.gp.local
*** at Mon Aug  6 12:24:38 2018

    SCF Algorithm Type (re)set to DF.

*** tstart() called on c-13-32.gp.local
*** at Mon Aug  6 12:24:38 2018

   => Loading Basis Set <=

    Name: DEF2-SV(P)
    Role: ORBITAL
    Keyword: BASIS
    atoms 1-2  entry C          line    87 file /beegfs/DATA/mobley/limvt/local/miniconda3/envs/oepython3/share/psi4/basis/def2-sv_p_.gbs 
    atoms 3    entry N          line   107 file /beegfs/DATA/mobley/limvt/local/miniconda3/envs/oepython3/share/psi4/basis/def2-sv_p_.gbs 
    atoms 4-10 entry H          line    14 file /beegfs/DATA/mobley/limvt/local/miniconda3/envs/oepython3/share/psi4/basis/def2-sv_p_.gbs 


         ---------------------------------------------------------
                                   SCF
            by Justin Turney, Rob Parrish, and Andy Simmonett
                              RHF Reference
                        1 Threads,   1430 MiB Core
         ---------------------------------------------------------

  ==> Geometry <==

    Molecular point group: c1
    Full point group: C1

    Geometry (in Angstrom), charge = 0, multiplicity = 1:

       Center              X                  Y                   Z               Mass       
    ------------   -----------------  -----------------  -----------------  -----------------
           C         -0.476800000001    -0.152900000011    -1.127899999998    12.000000000000
           C          0.841799999998    -0.003000000011     0.902400000002    12.000000000000
           N         -0.442199999990    -0.070699999964     0.319299999990    14.003074004780
           H          0.103165091218    -1.032461634775    -1.458932350173     1.007825032070
           H         -0.053841708537     0.741114629043    -1.644299526414     1.007825032070
           H         -1.516870647858    -0.291800882674    -1.468699554825     1.007825032070
           H          1.539530129776    -0.729193315012     0.594760752444     1.007825032070
           H          0.842345072127     0.257299090712     1.950911735293     1.007825032070
           H          1.402488597497     1.047372225487     0.450459696245     1.007825032070
           H         -1.075500000007     0.662599999986     0.638000000006     1.007825032070

  Running in c1 symmetry.

  Rotational constants: A =      1.16731  B =      0.30929  C =      0.27534 [cm^-1]
  Rotational constants: A =  34995.10183  B =   9272.17981  C =   8254.43869 [MHz]
  Nuclear repulsion =   84.185444073593956

  Charge       = 0
  Multiplicity = 1
  Electrons    = 26
  Nalpha       = 13
  Nbeta        = 13

  ==> Algorithm <==

  SCF Algorithm Type is DF.
  DIIS enabled.
  MOM disabled.
  Fractional occupation disabled.
  Guess Type is READ.
  Energy threshold   = 1.00e-10
  Density threshold  = 1.00e-10
  Integral threshold = 0.00e+00

  ==> Primary Basis <==

  Basis Set: DEF2-SV(P)
    Blend: DEF2-SV(P)
    Number of shells: 32
    Number of basis function: 56
    Number of Cartesian functions: 59
    Spherical Harmonics?: true
    Max angular momentum: 2

   => Loading Basis Set <=

    Name: (DEF2-SV(P) AUX)
    Role: JKFIT
    Keyword: DF_BASIS_SCF
    atoms 1-2  entry C          line   202 file /beegfs/DATA/mobley/limvt/local/miniconda3/envs/oepython3/share/psi4/basis/def2-sv_p_-jkfit.gbs 
    atoms 3    entry N          line   262 file /beegfs/DATA/mobley/limvt/local/miniconda3/envs/oepython3/share/psi4/basis/def2-sv_p_-jkfit.gbs 
    atoms 4-10 entry H          line    22 file /beegfs/DATA/mobley/limvt/local/miniconda3/envs/oepython3/share/psi4/basis/def2-sv_p_-jkfit.gbs 

  Reading orbitals from file 180, no projection.

  ==> Pre-Iterations <==

   -------------------------------------------------------
    Irrep   Nso     Nmo     Nalpha   Nbeta   Ndocc  Nsocc
   -------------------------------------------------------
     A         56      56       0       0       0       0
   -------------------------------------------------------
    Total      56      56      13      13      13       0
   -------------------------------------------------------

  ==> Integral Setup <==

  ==> DFJK: Density-Fitted J/K Matrices <==

    J tasked:                  Yes
    K tasked:                  Yes
    wK tasked:                  No
    OpenMP threads:              1
    Integrals threads:           1
    Memory (MB):              1072
    Algorithm:                Core
    Integral Cache:           NONE
    Schwarz Cutoff:          1E-12
    Fitting Condition:       1E-12

   => Auxiliary Basis Set <=

  Basis Set: (DEF2-SV(P) AUX)
    Blend: DEF2-SV_P_-JKFIT
    Number of shells: 117
    Number of basis function: 353
    Number of Cartesian functions: 411
    Spherical Harmonics?: true
    Max angular momentum: 4

  Minimum eigenvalue in the overlap matrix is 7.8601411174E-03.
  Using Symmetric Orthogonalization.

  SCF Guess: Orbitals guess was supplied from a previous computation.

  ==> Iterations <==

                           Total Energy        Delta E     RMS |[F,P]|

   @DF-RHF iter   0:  -134.09270978687010   -1.34093e+02   1.15282e-03 
   @DF-RHF iter   1:  -134.09951659577214   -6.80681e-03   1.69930e-04 
   @DF-RHF iter   2:  -134.09958860499074   -7.20092e-05   4.74014e-05 DIIS
   @DF-RHF iter   3:  -134.09959569036397   -7.08537e-06   1.93716e-05 DIIS
   @DF-RHF iter   4:  -134.09959713205711   -1.44169e-06   5.88876e-06 DIIS
   @DF-RHF iter   5:  -134.09959727796459   -1.45907e-07   1.48178e-06 DIIS
   @DF-RHF iter   6:  -134.09959728801812   -1.00535e-08   4.67426e-07 DIIS
   @DF-RHF iter   7:  -134.09959728886324   -8.45120e-10   1.49744e-07 DIIS
   @DF-RHF iter   8:  -134.09959728897161   -1.08372e-10   4.07620e-08 DIIS
   @DF-RHF iter   9:  -134.09959728898230   -1.06866e-11   1.04365e-08 DIIS
   @DF-RHF iter  10:  -134.09959728898275   -4.54747e-13   3.44005e-09 DIIS
   @DF-RHF iter  11:  -134.09959728898272    2.84217e-14   8.37727e-10 DIIS
   @DF-RHF iter  12:  -134.09959728898258    1.42109e-13   1.44053e-10 DIIS
   @DF-RHF iter  13:  -134.09959728898281   -2.27374e-13   3.33985e-11 DIIS

  ==> Post-Iterations <==

    Orbital Energies (a.u.)
    -----------------------

    Doubly Occupied:                                                      

       1A    -15.536437     2A    -11.254843     3A    -11.246347  
       4A     -1.194831     5A     -0.937723     6A     -0.840608  
       7A     -0.672534     8A     -0.614375     9A     -0.598491  
      10A     -0.538816    11A     -0.522103    12A     -0.497380  
      13A     -0.346619  

    Virtual:                                                              

      14A      0.173853    15A      0.217002    16A      0.222840  
      17A      0.250916    18A      0.265823    19A      0.281766  
      20A      0.295285    21A      0.365401    22A      0.432582  
      23A      0.602837    24A      0.632464    25A      0.661830  
      26A      0.672489    27A      0.776649    28A      0.832331  
      29A      0.873101    30A      0.899809    31A      0.918865  
      32A      0.936750    33A      0.959418    34A      0.974959  
      35A      1.007595    36A      1.039256    37A      1.120868  
      38A      1.170110    39A      1.290798    40A      1.343943  
      41A      1.409010    42A      1.813579    43A      1.935787  
      44A      2.078432    45A      2.171397    46A      2.305102  
      47A      2.346475    48A      2.359341    49A      2.411545  
      50A      2.434721    51A      2.460417    52A      2.912227  
      53A      2.962323    54A      2.980640    55A      3.278275  
      56A      3.405193  

    Final Occupation by Irrep:
              A 
    DOCC [    13 ]

  Energy converged.

  @DF-RHF Final Energy:  -134.09959728898281

   => Energetics <=

    Nuclear Repulsion Energy =             84.1854440735939562
    One-Electron Energy =                -346.9678702230042404
    Two-Electron Energy =                 128.6828288604274917
    DFT Exchange-Correlation Energy =       0.0000000000000000
    Empirical Dispersion Energy =           0.0000000000000000
    PCM Polarization Energy =               0.0000000000000000
    EFP Energy =                            0.0000000000000000
    Total Energy =                       -134.0995972889828067



Properties will be evaluated at   0.000000,   0.000000,   0.000000 Bohr

Properties computed using the SCF density matrix

  Nuclear Dipole Moment: (a.u.)
     X:     0.6348      Y:    -1.4652      Z:    -0.1053

  Electronic Dipole Moment: (a.u.)
     X:    -0.6588      Y:     1.7145      Z:     0.0361

  Dipole Moment: (a.u.)
     X:    -0.0240      Y:     0.2493      Z:    -0.0692     Total:     0.2598

  Dipole Moment: (Debye)
     X:    -0.0609      Y:     0.6336      Z:    -0.1759     Total:     0.6604


*** tstop() called on c-13-32.gp.local at Mon Aug  6 12:24:43 2018
Module time:
	user time   =       1.32 seconds =       0.02 minutes
	system time =       0.02 seconds =       0.00 minutes
	total time  =          5 seconds =       0.08 minutes
Total time:
	user time   =       6.76 seconds =       0.11 minutes
	system time =       0.15 seconds =       0.00 minutes
	total time  =         33 seconds =       0.55 minutes

  //>>>>>>>>>>>>>>>>>>>>>>>>>>>>>>>>>>>//
  //               DFMP2               //
  //<<<<<<<<<<<<<<<<<<<<<<<<<<<<<<<<<<<//

   => Loading Basis Set <=

    Name: DEF2-SV(P)-RI
    Role: RIFIT
    Keyword: DF_BASIS_MP2
    atoms 1-2  entry C          line   152 file /beegfs/DATA/mobley/limvt/local/miniconda3/envs/oepython3/share/psi4/basis/def2-sv_p_-ri.gbs 
    atoms 3    entry N          line   192 file /beegfs/DATA/mobley/limvt/local/miniconda3/envs/oepython3/share/psi4/basis/def2-sv_p_-ri.gbs 
    atoms 4-10 entry H          line    21 file /beegfs/DATA/mobley/limvt/local/miniconda3/envs/oepython3/share/psi4/basis/def2-sv_p_-ri.gbs 

	 --------------------------------------------------------
	                          DF-MP2                         
	      2nd-Order Density-Fitted Moller-Plesset Theory     
	              RMP2 Wavefunction,   1 Threads             
	                                                         
	        Rob Parrish, Justin Turney, Andy Simmonett,      
	           Ed Hohenstein, and C. David Sherrill          
	 --------------------------------------------------------

   => Auxiliary Basis Set <=

  Basis Set: DEF2-SV(P)-RI
    Blend: DEF2-SV(P)-RI
    Number of shells: 90
    Number of basis function: 242
    Number of Cartesian functions: 270
    Spherical Harmonics?: true
    Max angular momentum: 3

	 --------------------------------------------------------
	                 NBF =    56, NAUX =   242
	 --------------------------------------------------------
	   CLASS    FOCC     OCC    AOCC    AVIR     VIR    FVIR
	   PAIRS       3      13      10      43      43       0
	 --------------------------------------------------------


         ------------------------------------------------------------
                                     CPHF                           
                                  Rob Parrish                       
         ------------------------------------------------------------

  ==> Geometry <==

    Molecular point group: c1
    Full point group: C1

    Geometry (in Angstrom), charge = 0, multiplicity = 1:

       Center              X                  Y                   Z               Mass       
    ------------   -----------------  -----------------  -----------------  -----------------
           C         -0.476800000001    -0.152900000011    -1.127899999998    12.000000000000
           C          0.841799999998    -0.003000000011     0.902400000002    12.000000000000
           N         -0.442199999990    -0.070699999964     0.319299999990    14.003074004780
           H          0.103165091218    -1.032461634775    -1.458932350173     1.007825032070
           H         -0.053841708537     0.741114629043    -1.644299526414     1.007825032070
           H         -1.516870647858    -0.291800882674    -1.468699554825     1.007825032070
           H          1.539530129776    -0.729193315012     0.594760752444     1.007825032070
           H          0.842345072127     0.257299090712     1.950911735293     1.007825032070
           H          1.402488597497     1.047372225487     0.450459696245     1.007825032070
           H         -1.075500000007     0.662599999986     0.638000000006     1.007825032070

  Nuclear repulsion =   84.185444073593956
  Reference energy  = -134.099597288982807

  ==> Basis Set <==

  Basis Set: DEF2-SV(P)
    Blend: DEF2-SV(P)
    Number of shells: 32
    Number of basis function: 56
    Number of Cartesian functions: 59
    Spherical Harmonics?: true
    Max angular momentum: 2

  ==> CGRSolver (by Rob Parrish) <==

   Number of roots    =         1
   Preconditioning    =    JACOBI
   Convergence cutoff =     1E-06
   Maximum iterations =       100

  ==> CPHFRHamiltonian (by Rob Parrish) <== 

  ==> DFJK: Density-Fitted J/K Matrices <==

    J tasked:                  Yes
    K tasked:                  Yes
    wK tasked:                  No
    OpenMP threads:              1
    Integrals threads:           1
    Memory (MB):              1072
    Algorithm:                Core
    Integral Cache:           NONE
    Schwarz Cutoff:          1E-12
    Fitting Condition:       1E-12

   => Auxiliary Basis Set <=

  Basis Set: (DEF2-SV(P) AUX)
    Blend: DEF2-SV_P_-JKFIT
    Number of shells: 117
    Number of basis function: 353
    Number of Cartesian functions: 411
    Spherical Harmonics?: true
    Max angular momentum: 4

  ==> CPHF Iterations <==

  => Iterations <=

             Iter  Converged  Remaining    Residual
  CGR           1          0          1   9.946E-02
  CGR           2          0          1   1.720E-02
  CGR           3          0          1   6.895E-03
  CGR           4          0          1   1.003E-03
  CGR           5          0          1   2.569E-04
  CGR           6          0          1   5.032E-05
  CGR           7          0          1   1.643E-05
  CGR           8          0          1   3.650E-06
  CGR           9          1          0   7.150E-07

    CGRSolver converged.

  ==> DFCorrGrad: Density-Fitted Correlated Gradients <==

    OpenMP threads:              1
    Integrals threads:           1
    Memory (MB):              1072
    Schwarz Cutoff:          0E+00
    Fitting Condition:       1E-12

   => Auxiliary Basis Set <=

  Basis Set: (DEF2-SV(P) AUX)
    Blend: DEF2-SV_P_-JKFIT
    Number of shells: 117
    Number of basis function: 353
    Number of Cartesian functions: 411
    Spherical Harmonics?: true
    Max angular momentum: 4

	-----------------------------------------------------------
	 ==================> DF-MP2 Energies <==================== 
	-----------------------------------------------------------
	 Reference Energy          =    -134.0995972889828067 [Eh]
	 Singles Energy            =      -0.0000000000000000 [Eh]
	 Same-Spin Energy          =      -0.0979672562548047 [Eh]
	 Opposite-Spin Energy      =      -0.3186326740776027 [Eh]
	 Correlation Energy        =      -0.4165999303324073 [Eh]
	 Total Energy              =    -134.5161972193152167 [Eh]
	-----------------------------------------------------------
	 ================> DF-SCS-MP2 Energies <================== 
	-----------------------------------------------------------
	 SCS Same-Spin Scale       =       0.3333333333333333 [-]
	 SCS Opposite-Spin Scale   =       1.2000000000000000 [-]
	 SCS Same-Spin Energy      =      -0.0326557520849349 [Eh]
	 SCS Opposite-Spin Energy  =      -0.3823592088931232 [Eh]
	 SCS Correlation Energy    =      -0.4150149609780581 [Eh]
	 SCS Total Energy          =    -134.5146122499608623 [Eh]
	-----------------------------------------------------------


  -Total Gradient:
     Atom            X                  Y                   Z
    ------   -----------------  -----------------  -----------------
       1       -0.002798058551     0.000533334345    -0.003807363782
       2       -0.020441206877    -0.114973051850     0.035557417426
       3        0.024772768214     0.020984318872     0.005295314564
       4        0.000202007561    -0.000010299844     0.000109722961
       5       -0.001222533403    -0.000447859421    -0.000778997527
       6       -0.000080246466    -0.000299221554    -0.000288945799
       7       -0.014586505422     0.037735367424     0.003179290901
       8        0.004360016500     0.013331386532    -0.018144329300
       9        0.015288802667     0.042250771741    -0.017982509431
      10       -0.005495044223     0.000895253755    -0.003139600011


*** tstop() called on c-13-32.gp.local at Mon Aug  6 12:24:50 2018
Module time:
	user time   =       4.73 seconds =       0.08 minutes
	system time =       0.05 seconds =       0.00 minutes
	total time  =         12 seconds =       0.20 minutes
Total time:
	user time   =      10.17 seconds =       0.17 minutes
	system time =       0.18 seconds =       0.00 minutes
	total time  =         40 seconds =       0.67 minutes

			-----------------------------------------
			 OPTKING 2.0: for geometry optimizations 
			  - R.A. King,  Bethel University        
			-----------------------------------------
	At level 1: Red. Int., RFO, no backsteps, dynamic trust

	Previous internal coordinate definitions found.
	---Fragment 1 Geometry and Gradient---
	 C          -0.9010214202       -0.2889391257       -2.1314221053
	 C           1.5907714587       -0.0056691784        1.7052888623
	 N          -0.8356368959       -0.1336036375        0.6033895542
	 H           0.1949537689       -1.9510697324       -2.7569825882
	 H          -0.1017460837        1.4005036820       -3.1072757854
	 H          -2.8664701035       -0.5514237536       -2.7754399301
	 H           2.9092903186       -1.3779756633        1.1239349367
	 H           1.5918014957        0.4862248157        3.6866888891
	 H           2.6503193538        1.9792466654        0.8512454598
	 H          -2.0324004559        1.2521325356        1.2056452728
	            -0.0027980586        0.0005333343       -0.0038073638
	            -0.0204412069       -0.1149730519        0.0355574174
	             0.0247727682        0.0209843189        0.0052953146
	             0.0002020076       -0.0000102998        0.0001097230
	            -0.0012225334       -0.0004478594       -0.0007789975
	            -0.0000802465       -0.0002992216       -0.0002889458
	            -0.0145865054        0.0377353674        0.0031792909
	             0.0043600165        0.0133313865       -0.0181443293
	             0.0152888027        0.0422507717       -0.0179825094
	            -0.0054950442        0.0008952538       -0.0031396000

	---Fragment 1 Intrafragment Coordinates---
	 - Coordinate -           - BOHR/RAD -       - ANG/DEG -
	 R(1,3)           =         2.740000	       1.449945
	 R(1,4)           =         2.086903	       1.104342
	 R(1,5)           =         2.108400	       1.115717
	 R(1,6)           =         2.084861	       1.103261
	 R(2,3)           =         2.667959	       1.411823
	 R(2,7)           =         1.989897	       1.053008
	 R(2,8)           =         2.041545	       1.080339
	 R(2,9)           =         2.406641	       1.273540
	 R(3,10)          =         1.927491	       1.019984
	 B(1,3,2)         =         2.022669	     115.890394
	 B(1,3,10)        =         1.915381	     109.743229
	 B(2,3,10)        =         1.983574	     113.650433
	 B(3,1,4)         =         1.909016	     109.378571
	 B(3,1,5)         =         1.990502	     114.047364
	 B(3,1,6)         =         1.915535	     109.752077
	 B(3,2,7)         =         2.036312	     116.672075
	 B(3,2,8)         =         1.996385	     114.384434
	 B(3,2,9)         =         1.868561	     107.060650
	 B(4,1,5)         =         1.875876	     107.479791
	 B(4,1,6)         =         1.877816	     107.590950
	 B(5,1,6)         =         1.891557	     108.378235
	 B(7,2,8)         =         2.036861	     116.703528
	 B(7,2,9)         =         1.745071	      99.985202
	 B(8,2,9)         =         1.716786	      98.364604
	 D(1,3,2,7)       =        -0.882123	     -50.541942
	 D(1,3,2,8)       =         2.935848	     168.211698
	 D(1,3,2,9)       =         1.053872	      60.382419
	 D(2,3,1,4)       =         0.997231	      57.137144
	 D(2,3,1,5)       =        -1.103666	     -63.235428
	 D(2,3,1,6)       =         3.053580	     174.957261
	 D(4,1,3,10)      =        -3.010254	    -172.474853
	 D(5,1,3,10)      =         1.172034	      67.152575
	 D(6,1,3,10)      =        -0.953905	     -54.654736
	 D(7,2,3,10)      =        -3.124831	    -179.039648
	 D(8,2,3,10)      =         0.693140	      39.713992
	 D(9,2,3,10)      =        -1.188836	     -68.115287
	*R(3,X)           =        -0.835637	      -0.442200
	*R(3,Y)           =        -0.133604	      -0.070700
	*R(3,Z)           =         0.603390	       0.319300
	*R(1,X)           =        -0.901021	      -0.476800
	*R(1,Y)           =        -0.288939	      -0.152900
	*R(1,Z)           =        -2.131422	      -1.127900
	*R(10,X)          =        -2.032400	      -1.075500
	*R(10,Y)          =         1.252133	       0.662600
	*R(10,Z)          =         1.205645	       0.638000
	*R(2,X)           =         1.590771	       0.841800
	*R(2,Y)           =        -0.005669	      -0.003000
	*R(2,Z)           =         1.705289	       0.902400

	Current energy   :      -134.5161972193

	Energy change for the previous step:
		Projected    :        -0.0093886000
		Actual       :        -0.0082824412
	Energy ratio indicates good step: Trust radius increased to 3.000e-01.


	Performing BFGS update.
	Previous computed or guess Hessian on step 1.
	Steps to be used in Hessian update: 1
	Taking RFO optimization step.
	Going to follow RFO solution 1.
	Using RFO vector 1.

	Determining step-restricting scale parameter for RS-RFO.
	Maximum step size allowed    0.30000

	 Iter      |step|        alpha        rfo_root  
	------------------------------------------------
	    0     0.53065       1.00000           1
	    1     0.39559       2.72002           1
	    2     0.32688       4.70716           1
	    3     0.30319       5.77102           1
	    4     0.30005       5.93311           1
	    5     0.30000       5.93598           1
	------------------------------------------------
	Norm of target step-size    0.30000
	Projected energy change by RFO approximation:        -0.0183007075

	Back-transformation to cartesian coordinates...
	Successfully converged to displaced geometry.

	Back-transformation to cartesian coordinates to adjust frozen coordinates...
	Successfully converged to displaced geometry.

	--- Internal Coordinate Step in ANG or DEG, aJ/ANG or AJ/DEG ---
	 ---------------------------------------------------------------------------
	   Coordinate                Previous        Force       Change         New 
	   ----------                --------       ------       ------       ------
	    1 R(1,3)          =      1.449945     0.000000    -0.000000     1.449945
	    2 R(1,4)          =      1.104342    -0.000671    -0.000008     1.104334
	    3 R(1,5)          =      1.115717     0.003804     0.000355     1.116072
	    4 R(1,6)          =      1.103261    -0.001669    -0.000272     1.102989
	    5 R(2,3)          =      1.411823     0.000000    -0.000000     1.411823
	    6 R(2,7)          =      1.053008     0.301683     0.037597     1.090605
	    7 R(2,8)          =      1.080339     0.118600     0.017725     1.098064
	    8 R(2,9)          =      1.273540    -0.395125    -0.108971     1.164569
	    9 R(3,10)         =      1.019984    -0.000000    -0.000000     1.019984
	   10 B(1,3,2)        =    115.890394    -0.000000     0.000000   115.890394
	   11 B(1,3,10)       =    109.743229    -0.000000     0.000000   109.743229
	   12 B(2,3,10)       =    113.650433    -0.000000     0.000000   113.650433
	   13 B(3,1,4)        =    109.378571     0.000038     0.014850   109.393420
	   14 B(3,1,5)        =    114.047364    -0.000132    -0.168297   113.879067
	   15 B(3,1,6)        =    109.752077     0.000005    -0.020527   109.731550
	   16 B(3,2,7)        =    116.672075    -0.000994    -3.476901   113.195174
	   17 B(3,2,8)        =    114.384434    -0.000387    -1.675802   112.708632
	   18 B(3,2,9)        =    107.060650     0.001441     4.840628   111.901278
	   19 B(4,1,5)        =    107.479791     0.000018    -0.005932   107.473859
	   20 B(4,1,6)        =    107.590950     0.000009     0.049657   107.640607
	   21 B(5,1,6)        =    108.378235     0.000071     0.142566   108.520801
	   22 B(7,2,8)        =    116.703528    -0.000062    -2.076971   114.626556
	   23 B(7,2,9)        =     99.985202     0.000285     2.101543   102.086745
	   24 B(8,2,9)        =     98.364604     0.000464     2.756430   101.121034
	   25 D(1,3,2,7)      =    -50.541942    -0.000218    -4.451502   -54.993444
	   26 D(1,3,2,8)      =    168.211698     0.000236     4.668703   172.880401
	   27 D(1,3,2,9)      =     60.382419    -0.000039    -0.680486    59.701933
	   28 D(2,3,1,4)      =     57.137144     0.000002     0.143530    57.280673
	   29 D(2,3,1,5)      =    -63.235428     0.000011     0.252777   -62.982651
	   30 D(2,3,1,6)      =    174.957261     0.000010     0.200544   175.157805
	   31 D(4,1,3,10)     =   -172.474853     0.000002     0.143530  -172.331323
	   32 D(5,1,3,10)     =     67.152575     0.000011     0.252777    67.405352
	   33 D(6,1,3,10)     =    -54.654736     0.000010     0.200544   -54.454192
	   34 D(7,2,3,10)     =   -179.039648    -0.000218    -4.451502  -183.491150
	   35 D(8,2,3,10)     =     39.713992     0.000236     4.668703    44.382695
	   36 D(9,2,3,10)     =    -68.115287    -0.000039    -0.680486   -68.795773
	   37 *R(3,X)         =     -0.442200    -0.000000     0.000000    -0.442200
	   38 *R(3,Y)         =     -0.070700    -0.000000     0.000000    -0.070700
	   39 *R(3,Z)         =      0.319300     0.000000    -0.000000     0.319300
	   40 *R(1,X)         =     -0.476800    -0.000000    -0.000000    -0.476800
	   41 *R(1,Y)         =     -0.152900    -0.000000    -0.000000    -0.152900
	   42 *R(1,Z)         =     -1.127900     0.000000     0.000000    -1.127900
	   43 *R(10,X)        =     -1.075500     0.000000    -0.000000    -1.075500
	   44 *R(10,Y)        =      0.662600     0.000000    -0.000000     0.662600
	   45 *R(10,Z)        =      0.638000    -0.000000     0.000000     0.638000
	   46 *R(2,X)         =      0.841800     0.000000    -0.000000     0.841800
	   47 *R(2,Y)         =     -0.003000    -0.000000    -0.000000    -0.003000
	   48 *R(2,Z)         =      0.902400    -0.000000     0.000000     0.902400
	 ---------------------------------------------------------------------------
	Successfully symmetrized geometry.

  ==> Convergence Check <==

  Measures of convergence in internal coordinates in au.
  Criteria marked as inactive (o), active & met (*), and active & unmet ( ).
  ---------------------------------------------------------------------------------------------
   Step     Total Energy     Delta E     MAX Force     RMS Force      MAX Disp      RMS Disp   
  ---------------------------------------------------------------------------------------------
    Convergence Criteria    1.00e-06 *    3.00e-04 *             o    1.20e-03 *             o
  ---------------------------------------------------------------------------------------------
      2    -134.51619722   -8.28e-03      4.80e-02      1.04e-02 o    2.06e-01      4.35e-02 o  ~
  ---------------------------------------------------------------------------------------------

	Writing optimization data to binary file.
	Structure for next step:
	Cartesian Geometry (in Angstrom)
	    C    -0.4768000000  -0.1529000000  -1.1279000000
	    C     0.8418000000  -0.0030000000   0.9024000000
	    N    -0.4422000000  -0.0706999999   0.3193000000
	    H     0.1009471895  -1.0338596590  -1.4590679076
	    H    -0.0490003625   0.7408422427  -1.6415434746
	    H    -1.5171490068  -0.2881553230  -1.4684351591
	    H     1.4933703174  -0.8247561082   0.6030794940
	    H     0.8068847443   0.1825745247   1.9841058122
	    H     1.4376821283   0.9272887932   0.5340145307
	    H    -1.0755000000   0.6626000000   0.6380000000
			--------------------------
			 OPTKING Finished Execution 
			--------------------------

    Structure for next step:
    Molecular point group: c1
    Full point group: C1

    Geometry (in Angstrom), charge = 0, multiplicity = 1:

    C           -0.476800000002    -0.152900000022    -1.127899999996
    C            0.841799999997    -0.003000000023     0.902400000003
    N           -0.442199999980    -0.070699999928     0.319299999979
    H            0.100947189504    -1.033859658978    -1.459067907566
    H           -0.049000362495     0.740842242707    -1.641543474578
    H           -1.517149006790    -0.288155323013    -1.468435159109
    H            1.493370317415    -0.824756108221     0.603079494022
    H            0.806884744258     0.182574524690     1.984105812213
    H            1.437682128257     0.927288793194     0.534014530661
    H           -1.075500000015     0.662599999972     0.638000000013

gradient() will perform analytic gradient computation.

*** tstart() called on c-13-32.gp.local
*** at Mon Aug  6 12:24:50 2018

    SCF Algorithm Type (re)set to DF.

*** tstart() called on c-13-32.gp.local
*** at Mon Aug  6 12:24:50 2018

   => Loading Basis Set <=

    Name: DEF2-SV(P)
    Role: ORBITAL
    Keyword: BASIS
    atoms 1-2  entry C          line    87 file /beegfs/DATA/mobley/limvt/local/miniconda3/envs/oepython3/share/psi4/basis/def2-sv_p_.gbs 
    atoms 3    entry N          line   107 file /beegfs/DATA/mobley/limvt/local/miniconda3/envs/oepython3/share/psi4/basis/def2-sv_p_.gbs 
    atoms 4-10 entry H          line    14 file /beegfs/DATA/mobley/limvt/local/miniconda3/envs/oepython3/share/psi4/basis/def2-sv_p_.gbs 


         ---------------------------------------------------------
                                   SCF
            by Justin Turney, Rob Parrish, and Andy Simmonett
                              RHF Reference
                        1 Threads,   1430 MiB Core
         ---------------------------------------------------------

  ==> Geometry <==

    Molecular point group: c1
    Full point group: C1

    Geometry (in Angstrom), charge = 0, multiplicity = 1:

       Center              X                  Y                   Z               Mass       
    ------------   -----------------  -----------------  -----------------  -----------------
           C         -0.476800000002    -0.152900000022    -1.127899999996    12.000000000000
           C          0.841799999997    -0.003000000023     0.902400000003    12.000000000000
           N         -0.442199999980    -0.070699999928     0.319299999979    14.003074004780
           H          0.100947189504    -1.033859658978    -1.459067907566     1.007825032070
           H         -0.049000362495     0.740842242707    -1.641543474578     1.007825032070
           H         -1.517149006790    -0.288155323013    -1.468435159109     1.007825032070
           H          1.493370317415    -0.824756108221     0.603079494022     1.007825032070
           H          0.806884744258     0.182574524690     1.984105812213     1.007825032070
           H          1.437682128257     0.927288793194     0.534014530661     1.007825032070
           H         -1.075500000015     0.662599999972     0.638000000013     1.007825032070

  Running in c1 symmetry.

  Rotational constants: A =      1.17917  B =      0.30911  C =      0.27489 [cm^-1]
  Rotational constants: A =  35350.52480  B =   9266.76451  C =   8240.90487 [MHz]
  Nuclear repulsion =   84.291294623605268

  Charge       = 0
  Multiplicity = 1
  Electrons    = 26
  Nalpha       = 13
  Nbeta        = 13

  ==> Algorithm <==

  SCF Algorithm Type is DF.
  DIIS enabled.
  MOM disabled.
  Fractional occupation disabled.
  Guess Type is READ.
  Energy threshold   = 1.00e-10
  Density threshold  = 1.00e-10
  Integral threshold = 0.00e+00

  ==> Primary Basis <==

  Basis Set: DEF2-SV(P)
    Blend: DEF2-SV(P)
    Number of shells: 32
    Number of basis function: 56
    Number of Cartesian functions: 59
    Spherical Harmonics?: true
    Max angular momentum: 2

   => Loading Basis Set <=

    Name: (DEF2-SV(P) AUX)
    Role: JKFIT
    Keyword: DF_BASIS_SCF
    atoms 1-2  entry C          line   202 file /beegfs/DATA/mobley/limvt/local/miniconda3/envs/oepython3/share/psi4/basis/def2-sv_p_-jkfit.gbs 
    atoms 3    entry N          line   262 file /beegfs/DATA/mobley/limvt/local/miniconda3/envs/oepython3/share/psi4/basis/def2-sv_p_-jkfit.gbs 
    atoms 4-10 entry H          line    22 file /beegfs/DATA/mobley/limvt/local/miniconda3/envs/oepython3/share/psi4/basis/def2-sv_p_-jkfit.gbs 

  Reading orbitals from file 180, no projection.

  ==> Pre-Iterations <==

   -------------------------------------------------------
    Irrep   Nso     Nmo     Nalpha   Nbeta   Ndocc  Nsocc
   -------------------------------------------------------
     A         56      56       0       0       0       0
   -------------------------------------------------------
    Total      56      56      13      13      13       0
   -------------------------------------------------------

  ==> Integral Setup <==

  ==> DFJK: Density-Fitted J/K Matrices <==

    J tasked:                  Yes
    K tasked:                  Yes
    wK tasked:                  No
    OpenMP threads:              1
    Integrals threads:           1
    Memory (MB):              1072
    Algorithm:                Core
    Integral Cache:           NONE
    Schwarz Cutoff:          1E-12
    Fitting Condition:       1E-12

   => Auxiliary Basis Set <=

  Basis Set: (DEF2-SV(P) AUX)
    Blend: DEF2-SV_P_-JKFIT
    Number of shells: 117
    Number of basis function: 353
    Number of Cartesian functions: 411
    Spherical Harmonics?: true
    Max angular momentum: 4

  Minimum eigenvalue in the overlap matrix is 7.7871675945E-03.
  Using Symmetric Orthogonalization.

  SCF Guess: Orbitals guess was supplied from a previous computation.

  ==> Iterations <==

                           Total Energy        Delta E     RMS |[F,P]|

   @DF-RHF iter   0:  -134.13029572651564   -1.34130e+02   2.83393e-03 
   @DF-RHF iter   1:  -134.11515879008377    1.51369e-02   4.63015e-04 
   @DF-RHF iter   2:  -134.11573747739556   -5.78687e-04   1.33651e-04 DIIS
   @DF-RHF iter   3:  -134.11579691675357   -5.94394e-05   5.04625e-05 DIIS
   @DF-RHF iter   4:  -134.11580758773272   -1.06710e-05   1.62166e-05 DIIS
   @DF-RHF iter   5:  -134.11580839474129   -8.07009e-07   3.73787e-06 DIIS
   @DF-RHF iter   6:  -134.11580846157560   -6.68343e-08   1.10279e-06 DIIS
   @DF-RHF iter   7:  -134.11580846682779   -5.25219e-09   3.53284e-07 DIIS
   @DF-RHF iter   8:  -134.11580846745227   -6.24482e-10   1.08870e-07 DIIS
   @DF-RHF iter   9:  -134.11580846752366   -7.13953e-11   2.60938e-08 DIIS
   @DF-RHF iter  10:  -134.11580846752767   -4.00746e-12   7.22618e-09 DIIS
   @DF-RHF iter  11:  -134.11580846752798   -3.12639e-13   2.11668e-09 DIIS
   @DF-RHF iter  12:  -134.11580846752821   -2.27374e-13   4.28311e-10 DIIS
   @DF-RHF iter  13:  -134.11580846752787    3.41061e-13   9.88109e-11 DIIS

  ==> Post-Iterations <==

    Orbital Energies (a.u.)
    -----------------------

    Doubly Occupied:                                                      

       1A    -15.532871     2A    -11.245912     3A    -11.245219  
       4A     -1.192585     5A     -0.936630     6A     -0.838264  
       7A     -0.668668     8A     -0.607258     9A     -0.600719  
      10A     -0.533989    11A     -0.518560    12A     -0.508079  
      13A     -0.352998  

    Virtual:                                                              

      14A      0.175513    15A      0.217943    16A      0.225168  
      17A      0.258319    18A      0.264886    19A      0.284759  
      20A      0.298443    21A      0.364368    22A      0.433636  
      23A      0.603170    24A      0.637713    25A      0.665417  
      26A      0.675410    27A      0.775792    28A      0.850690  
      29A      0.880672    30A      0.903410    31A      0.930102  
      32A      0.931000    33A      0.959410    34A      0.972604  
      35A      0.993760    36A      1.030317    37A      1.127767  
      38A      1.171356    39A      1.261859    40A      1.339711  
      41A      1.415730    42A      1.819962    43A      1.927677  
      44A      2.103335    45A      2.169131    46A      2.331831  
      47A      2.349529    48A      2.374016    49A      2.423869  
      50A      2.435803    51A      2.456448    52A      2.913033  
      53A      2.958972    54A      2.984723    55A      3.276151  
      56A      3.407892  

    Final Occupation by Irrep:
              A 
    DOCC [    13 ]

  Energy converged.

  @DF-RHF Final Energy:  -134.11580846752787

   => Energetics <=

    Nuclear Repulsion Energy =             84.2912946236052676
    One-Electron Energy =                -347.2507023510722775
    Two-Electron Energy =                 128.8435992599391398
    DFT Exchange-Correlation Energy =       0.0000000000000000
    Empirical Dispersion Energy =           0.0000000000000000
    PCM Polarization Energy =               0.0000000000000000
    EFP Energy =                            0.0000000000000000
    Total Energy =                       -134.1158084675278701



Properties will be evaluated at   0.000000,   0.000000,   0.000000 Bohr

Properties computed using the SCF density matrix

  Nuclear Dipole Moment: (a.u.)
     X:     0.5515      Y:    -2.0102      Z:     0.1365

  Electronic Dipole Moment: (a.u.)
     X:    -0.5281      Y:     2.3458      Z:    -0.2334

  Dipole Moment: (a.u.)
     X:     0.0234      Y:     0.3356      Z:    -0.0969     Total:     0.3501

  Dipole Moment: (Debye)
     X:     0.0595      Y:     0.8529      Z:    -0.2463     Total:     0.8898


*** tstop() called on c-13-32.gp.local at Mon Aug  6 12:24:56 2018
Module time:
	user time   =       1.33 seconds =       0.02 minutes
	system time =       0.02 seconds =       0.00 minutes
	total time  =          6 seconds =       0.10 minutes
Total time:
	user time   =      11.58 seconds =       0.19 minutes
	system time =       0.20 seconds =       0.00 minutes
	total time  =         46 seconds =       0.77 minutes

  //>>>>>>>>>>>>>>>>>>>>>>>>>>>>>>>>>>>//
  //               DFMP2               //
  //<<<<<<<<<<<<<<<<<<<<<<<<<<<<<<<<<<<//

   => Loading Basis Set <=

    Name: DEF2-SV(P)-RI
    Role: RIFIT
    Keyword: DF_BASIS_MP2
    atoms 1-2  entry C          line   152 file /beegfs/DATA/mobley/limvt/local/miniconda3/envs/oepython3/share/psi4/basis/def2-sv_p_-ri.gbs 
    atoms 3    entry N          line   192 file /beegfs/DATA/mobley/limvt/local/miniconda3/envs/oepython3/share/psi4/basis/def2-sv_p_-ri.gbs 
    atoms 4-10 entry H          line    21 file /beegfs/DATA/mobley/limvt/local/miniconda3/envs/oepython3/share/psi4/basis/def2-sv_p_-ri.gbs 

	 --------------------------------------------------------
	                          DF-MP2                         
	      2nd-Order Density-Fitted Moller-Plesset Theory     
	              RMP2 Wavefunction,   1 Threads             
	                                                         
	        Rob Parrish, Justin Turney, Andy Simmonett,      
	           Ed Hohenstein, and C. David Sherrill          
	 --------------------------------------------------------

   => Auxiliary Basis Set <=

  Basis Set: DEF2-SV(P)-RI
    Blend: DEF2-SV(P)-RI
    Number of shells: 90
    Number of basis function: 242
    Number of Cartesian functions: 270
    Spherical Harmonics?: true
    Max angular momentum: 3

	 --------------------------------------------------------
	                 NBF =    56, NAUX =   242
	 --------------------------------------------------------
	   CLASS    FOCC     OCC    AOCC    AVIR     VIR    FVIR
	   PAIRS       3      13      10      43      43       0
	 --------------------------------------------------------


         ------------------------------------------------------------
                                     CPHF                           
                                  Rob Parrish                       
         ------------------------------------------------------------

  ==> Geometry <==

    Molecular point group: c1
    Full point group: C1

    Geometry (in Angstrom), charge = 0, multiplicity = 1:

       Center              X                  Y                   Z               Mass       
    ------------   -----------------  -----------------  -----------------  -----------------
           C         -0.476800000002    -0.152900000022    -1.127899999996    12.000000000000
           C          0.841799999997    -0.003000000023     0.902400000003    12.000000000000
           N         -0.442199999980    -0.070699999928     0.319299999979    14.003074004780
           H          0.100947189504    -1.033859658978    -1.459067907566     1.007825032070
           H         -0.049000362495     0.740842242707    -1.641543474578     1.007825032070
           H         -1.517149006790    -0.288155323013    -1.468435159109     1.007825032070
           H          1.493370317415    -0.824756108221     0.603079494022     1.007825032070
           H          0.806884744258     0.182574524690     1.984105812213     1.007825032070
           H          1.437682128257     0.927288793194     0.534014530661     1.007825032070
           H         -1.075500000015     0.662599999972     0.638000000013     1.007825032070

  Nuclear repulsion =   84.291294623605268
  Reference energy  = -134.115808467527870

  ==> Basis Set <==

  Basis Set: DEF2-SV(P)
    Blend: DEF2-SV(P)
    Number of shells: 32
    Number of basis function: 56
    Number of Cartesian functions: 59
    Spherical Harmonics?: true
    Max angular momentum: 2

  ==> CGRSolver (by Rob Parrish) <==

   Number of roots    =         1
   Preconditioning    =    JACOBI
   Convergence cutoff =     1E-06
   Maximum iterations =       100

  ==> CPHFRHamiltonian (by Rob Parrish) <== 

  ==> DFJK: Density-Fitted J/K Matrices <==

    J tasked:                  Yes
    K tasked:                  Yes
    wK tasked:                  No
    OpenMP threads:              1
    Integrals threads:           1
    Memory (MB):              1072
    Algorithm:                Core
    Integral Cache:           NONE
    Schwarz Cutoff:          1E-12
    Fitting Condition:       1E-12

   => Auxiliary Basis Set <=

  Basis Set: (DEF2-SV(P) AUX)
    Blend: DEF2-SV_P_-JKFIT
    Number of shells: 117
    Number of basis function: 353
    Number of Cartesian functions: 411
    Spherical Harmonics?: true
    Max angular momentum: 4

  ==> CPHF Iterations <==

  => Iterations <=

             Iter  Converged  Remaining    Residual
  CGR           1          0          1   9.424E-02
  CGR           2          0          1   1.479E-02
  CGR           3          0          1   5.854E-03
  CGR           4          0          1   8.530E-04
  CGR           5          0          1   2.204E-04
  CGR           6          0          1   3.486E-05
  CGR           7          0          1   7.474E-06
  CGR           8          0          1   2.767E-06
  CGR           9          1          0   6.091E-07

    CGRSolver converged.

  ==> DFCorrGrad: Density-Fitted Correlated Gradients <==

    OpenMP threads:              1
    Integrals threads:           1
    Memory (MB):              1072
    Schwarz Cutoff:          0E+00
    Fitting Condition:       1E-12

   => Auxiliary Basis Set <=

  Basis Set: (DEF2-SV(P) AUX)
    Blend: DEF2-SV_P_-JKFIT
    Number of shells: 117
    Number of basis function: 353
    Number of Cartesian functions: 411
    Spherical Harmonics?: true
    Max angular momentum: 4

	-----------------------------------------------------------
	 ==================> DF-MP2 Energies <==================== 
	-----------------------------------------------------------
	 Reference Energy          =    -134.1158084675278701 [Eh]
	 Singles Energy            =      -0.0000000000000000 [Eh]
	 Same-Spin Energy          =      -0.0978110126261039 [Eh]
	 Opposite-Spin Energy      =      -0.3176598109480178 [Eh]
	 Correlation Energy        =      -0.4154708235741217 [Eh]
	 Total Energy              =    -134.5312792911019812 [Eh]
	-----------------------------------------------------------
	 ================> DF-SCS-MP2 Energies <================== 
	-----------------------------------------------------------
	 SCS Same-Spin Scale       =       0.3333333333333333 [-]
	 SCS Opposite-Spin Scale   =       1.2000000000000000 [-]
	 SCS Same-Spin Energy      =      -0.0326036708753680 [Eh]
	 SCS Opposite-Spin Energy  =      -0.3811917731376213 [Eh]
	 SCS Correlation Energy    =      -0.4137954440129893 [Eh]
	 SCS Total Energy          =    -134.5296039115408462 [Eh]
	-----------------------------------------------------------


  -Total Gradient:
     Atom            X                  Y                   Z
    ------   -----------------  -----------------  -----------------
       1       -0.003775528747    -0.001343126123    -0.003366822753
       2       -0.032083046642    -0.056247388983     0.012354302592
       3        0.027374562303     0.013455514720     0.008170852451
       4        0.000118782928     0.000264453459    -0.000006187865
       5       -0.000348747505     0.000478384549     0.000253564725
       6        0.000063525413    -0.000438087641    -0.000010126835
       7        0.001486330301     0.014645733248    -0.005376569948
       8        0.003059173059     0.013138593503    -0.005302648553
       9        0.008889898296     0.015724950749    -0.004096810735
      10       -0.004784949405     0.000320972519    -0.002619553078


*** tstop() called on c-13-32.gp.local at Mon Aug  6 12:25:03 2018
Module time:
	user time   =       4.71 seconds =       0.08 minutes
	system time =       0.06 seconds =       0.00 minutes
	total time  =         13 seconds =       0.22 minutes
Total time:
	user time   =      14.96 seconds =       0.25 minutes
	system time =       0.24 seconds =       0.00 minutes
	total time  =         53 seconds =       0.88 minutes

			-----------------------------------------
			 OPTKING 2.0: for geometry optimizations 
			  - R.A. King,  Bethel University        
			-----------------------------------------
	At level 1: Red. Int., RFO, no backsteps, dynamic trust

	Previous internal coordinate definitions found.
	---Fragment 1 Geometry and Gradient---
	 C          -0.9010214202       -0.2889391258       -2.1314221053
	 C           1.5907714587       -0.0056691784        1.7052888623
	 N          -0.8356368959       -0.1336036375        0.6033895542
	 H           0.1907625420       -1.9537116153       -2.7572387546
	 H          -0.0925972655        1.3999889464       -3.1020676022
	 H          -2.8669961256       -0.5445346442       -2.7749402946
	 H           2.8220609149       -1.5585631710        1.1396550801
	 H           1.5247911875        0.3450158505        3.7494166037
	 H           2.7168254886        1.7523218652        1.0091412139
	 H          -2.0324004559        1.2521325356        1.2056452728
	            -0.0037755287       -0.0013431261       -0.0033668228
	            -0.0320830466       -0.0562473890        0.0123543026
	             0.0273745623        0.0134555147        0.0081708525
	             0.0001187829        0.0002644535       -0.0000061879
	            -0.0003487475        0.0004783845        0.0002535647
	             0.0000635254       -0.0004380876       -0.0000101268
	             0.0014863303        0.0146457332       -0.0053765699
	             0.0030591731        0.0131385935       -0.0053026486
	             0.0088898983        0.0157249507       -0.0040968107
	            -0.0047849494        0.0003209725       -0.0026195531

[...]
    Max angular momentum: 3

	 --------------------------------------------------------
	                 NBF =    56, NAUX =   242
	 --------------------------------------------------------
	   CLASS    FOCC     OCC    AOCC    AVIR     VIR    FVIR
	   PAIRS       3      13      10      43      43       0
	 --------------------------------------------------------


         ------------------------------------------------------------
                                     CPHF                           
                                  Rob Parrish                       
         ------------------------------------------------------------

  ==> Geometry <==

    Molecular point group: c1
    Full point group: C1

    Geometry (in Angstrom), charge = 0, multiplicity = 1:

       Center              X                  Y                   Z               Mass       
    ------------   -----------------  -----------------  -----------------  -----------------
           C         -0.476800000003    -0.152900000026    -1.127899999997    12.000000000000
           C          0.841799999993    -0.003000000029     0.902400000002    12.000000000000
           N         -0.442199999969    -0.070699999910     0.319299999981    14.003074004780
           H          0.020463242022    -1.083537562420    -1.456453553129     1.007825032070
           H          0.028569940692     0.695641151971    -1.646856139607     1.007825032070
           H         -1.524351570881    -0.194245261953    -1.470510611567     1.007825032070
           H          1.405949282547    -0.925984265964     0.671758618687     1.007825032070
           H          0.757518676113     0.059463464325     2.001518827957     1.007825032070
           H          1.473121010925     0.855033563853     0.561940353964     1.007825032070
           H         -1.075500000021     0.662599999966     0.638000000014     1.007825032070

  Nuclear repulsion =   84.368801922235988
  Reference energy  = -134.121175253945637

  ==> Basis Set <==

  Basis Set: DEF2-SV(P)
    Blend: DEF2-SV(P)
    Number of shells: 32
    Number of basis function: 56
    Number of Cartesian functions: 59
    Spherical Harmonics?: true
    Max angular momentum: 2

  ==> CGRSolver (by Rob Parrish) <==

   Number of roots    =         1
   Preconditioning    =    JACOBI
   Convergence cutoff =     1E-06
   Maximum iterations =       100

  ==> CPHFRHamiltonian (by Rob Parrish) <== 

  ==> DFJK: Density-Fitted J/K Matrices <==

    J tasked:                  Yes
    K tasked:                  Yes
    wK tasked:                  No
    OpenMP threads:              1
    Integrals threads:           1
    Memory (MB):              1072
    Algorithm:                Core
    Integral Cache:           NONE
    Schwarz Cutoff:          1E-12
    Fitting Condition:       1E-12

   => Auxiliary Basis Set <=

  Basis Set: (DEF2-SV(P) AUX)
    Blend: DEF2-SV_P_-JKFIT
    Number of shells: 117
    Number of basis function: 353
    Number of Cartesian functions: 411
    Spherical Harmonics?: true
    Max angular momentum: 4

  ==> CPHF Iterations <==

  => Iterations <=

             Iter  Converged  Remaining    Residual
  CGR           1          0          1   9.277E-02
  CGR           2          0          1   1.402E-02
  CGR           3          0          1   5.539E-03
  CGR           4          0          1   8.147E-04
  CGR           5          0          1   2.150E-04
  CGR           6          0          1   3.717E-05
  CGR           7          0          1   1.061E-05
  CGR           8          0          1   3.726E-06
  CGR           9          1          0   7.797E-07

    CGRSolver converged.

  ==> DFCorrGrad: Density-Fitted Correlated Gradients <==

    OpenMP threads:              1
    Integrals threads:           1
    Memory (MB):              1072
    Schwarz Cutoff:          0E+00
    Fitting Condition:       1E-12

   => Auxiliary Basis Set <=

  Basis Set: (DEF2-SV(P) AUX)
    Blend: DEF2-SV_P_-JKFIT
    Number of shells: 117
    Number of basis function: 353
    Number of Cartesian functions: 411
    Spherical Harmonics?: true
    Max angular momentum: 4

	-----------------------------------------------------------
	 ==================> DF-MP2 Energies <==================== 
	-----------------------------------------------------------
	 Reference Energy          =    -134.1211752539456370 [Eh]
	 Singles Energy            =      -0.0000000000000000 [Eh]
	 Same-Spin Energy          =      -0.0977268737277331 [Eh]
	 Opposite-Spin Energy      =      -0.3171920361770142 [Eh]
	 Correlation Energy        =      -0.4149189099047473 [Eh]
	 Total Energy              =    -134.5360941638503789 [Eh]
	-----------------------------------------------------------
	 ================> DF-SCS-MP2 Energies <================== 
	-----------------------------------------------------------
	 SCS Same-Spin Scale       =       0.3333333333333333 [-]
	 SCS Opposite-Spin Scale   =       1.2000000000000000 [-]
	 SCS Same-Spin Energy      =      -0.0325756245759110 [Eh]
	 SCS Opposite-Spin Energy  =      -0.3806304434124171 [Eh]
	 SCS Correlation Energy    =      -0.4132060679883281 [Eh]
	 SCS Total Energy          =    -134.5343813219339779 [Eh]
	-----------------------------------------------------------


  -Total Gradient:
     Atom            X                  Y                   Z
    ------   -----------------  -----------------  -----------------
       1       -0.003590654496    -0.000389075743    -0.002421307648
       2       -0.020934028435    -0.003660950709    -0.007600980502
       3        0.029006504145     0.004566886239     0.011993853326
       4       -0.000002287922     0.000004530401     0.000008876883
       5        0.000000963319    -0.000000617894    -0.000004701558
       6       -0.000001474374     0.000000531052    -0.000002291734
       7        0.000011653484    -0.000016067968    -0.000015279907
       8        0.000004715340    -0.000005735118     0.000006986383
       9        0.000003535343    -0.000006978419     0.000008041568
      10       -0.004498926403    -0.000492521841    -0.001973196812


*** tstop() called on c-13-32.gp.local at Mon Aug  6 12:25:54 2018
Module time:
	user time   =       4.57 seconds =       0.08 minutes
	system time =       0.07 seconds =       0.00 minutes
	total time  =         10 seconds =       0.17 minutes
Total time:
	user time   =      38.24 seconds =       0.64 minutes
	system time =       0.56 seconds =       0.01 minutes
	total time  =        104 seconds =       1.73 minutes

			-----------------------------------------
			 OPTKING 2.0: for geometry optimizations 
			  - R.A. King,  Bethel University        
			-----------------------------------------
	At level 1: Red. Int., RFO, no backsteps, dynamic trust

	Previous internal coordinate definitions found.
	---Fragment 1 Geometry and Gradient---
	 C          -0.9010214202       -0.2889391258       -2.1314221053
	 C           1.5907714586       -0.0056691785        1.7052888623
	 N          -0.8356368959       -0.1336036374        0.6033895542
	 H           0.0386699232       -2.0475892477       -2.7522983407
	 H           0.0539893635        1.3145712640       -3.1121070841
	 H          -2.8806069992       -0.3670703477       -2.7788623314
	 H           2.6568591007       -1.7498566660        1.2694398167
	 H           1.4315028384        0.1123696625        3.7823224347
	 H           2.7837952712        1.6157792701        1.0619133720
	 H          -2.0324004560        1.2521325356        1.2056452728
	            -0.0035906545       -0.0003890757       -0.0024213076
	            -0.0209340284       -0.0036609507       -0.0076009805
	             0.0290065041        0.0045668862        0.0119938533
	            -0.0000022879        0.0000045304        0.0000088769
	             0.0000009633       -0.0000006179       -0.0000047016
	            -0.0000014744        0.0000005311       -0.0000022917
	             0.0000116535       -0.0000160680       -0.0000152799
	             0.0000047153       -0.0000057351        0.0000069864
	             0.0000035353       -0.0000069784        0.0000080416
	            -0.0044989264       -0.0004925218       -0.0019731968

	---Fragment 1 Intrafragment Coordinates---
	 - Coordinate -           - BOHR/RAD -       - ANG/DEG -
	 R(1,3)           =         2.740000	       1.449945
	 R(1,4)           =         2.088386	       1.105126
	 R(1,5)           =         2.108325	       1.115678
	 R(1,6)           =         2.084237	       1.102931
	 R(2,3)           =         2.667959	       1.411823
	 R(2,7)           =         2.090143	       1.106056
	 R(2,8)           =         2.086473	       1.104114
	 R(2,9)           =         2.113370	       1.118347
	 R(3,10)          =         1.927491	       1.019984
	 B(1,3,2)         =         2.022669	     115.890394
	 B(1,3,10)        =         1.915381	     109.743229
	 B(2,3,10)        =         1.983574	     113.650433
	 B(3,1,4)         =         1.911064	     109.495929
	 B(3,1,5)         =         1.993625	     114.226276
	 B(3,1,6)         =         1.912230	     109.562712
	 B(3,2,7)         =         1.915308	     109.739043
	 B(3,2,8)         =         1.922432	     110.147224
	 B(3,2,9)         =         2.009161	     115.116466
	 B(4,1,5)         =         1.873779	     107.359621
	 B(4,1,6)         =         1.879105	     107.664792
	 B(5,1,6)         =         1.890459	     108.315301
	 B(7,2,8)         =         1.868919	     107.081194
	 B(7,2,9)         =         1.863800	     106.787850
	 B(8,2,9)         =         1.878363	     107.622265
	 D(1,3,2,7)       =        -1.091168	     -62.519333
	 D(1,3,2,8)       =         3.138661	     179.832042
	 D(1,3,2,9)       =         1.011461	      57.952441
	 D(2,3,1,4)       =         1.090572	      62.485194
	 D(2,3,1,5)       =        -1.011216	     -57.938399
	 D(2,3,1,6)       =        -3.135433	    -179.647085
	 D(4,1,3,10)      =        -2.916913	    -167.126803
	 D(5,1,3,10)      =         1.264484	      72.449604
	 D(6,1,3,10)      =        -0.859733	     -49.259082
	 D(7,2,3,10)      =         2.949309	     168.982961
	 D(8,2,3,10)      =         0.895953	      51.334336
	 D(9,2,3,10)      =        -1.231247	     -70.545266
	*R(3,X)           =        -0.835637	      -0.442200
	*R(3,Y)           =        -0.133604	      -0.070700
	*R(3,Z)           =         0.603390	       0.319300
	*R(1,X)           =        -0.901021	      -0.476800
	*R(1,Y)           =        -0.288939	      -0.152900
	*R(1,Z)           =        -2.131422	      -1.127900
	*R(10,X)          =        -2.032400	      -1.075500
	*R(10,Y)          =         1.252133	       0.662600
	*R(10,Z)          =         1.205645	       0.638000
	*R(2,X)           =         1.590771	       0.841800
	*R(2,Y)           =        -0.005669	      -0.003000
	*R(2,Z)           =         1.705289	       0.902400

	Current energy   :      -134.5360941639

	Energy change for the previous step:
		Projected    :        -0.0000031428
		Actual       :        -0.0000002470
	Energy ratio indicates iffy step: Trust radius decreased to 1.688e-01.


	Performing BFGS update.
	Previous computed or guess Hessian on step 1.
	Steps to be used in Hessian update: 7 6
	Taking RFO optimization step.
	Going to follow RFO solution 1.
	Using RFO vector 1.
	Norm of target step-size    0.00178
	Projected energy change by RFO approximation:         0.0000000272

	Back-transformation to cartesian coordinates...
	Successfully converged to displaced geometry.

	Back-transformation to cartesian coordinates to adjust frozen coordinates...
	Successfully converged to displaced geometry.

	--- Internal Coordinate Step in ANG or DEG, aJ/ANG or AJ/DEG ---
	 ---------------------------------------------------------------------------
	   Coordinate                Previous        Force       Change         New 
	   ----------                --------       ------       ------       ------
	    1 R(1,3)          =      1.449945    -0.000000     0.000000     1.449945
	    2 R(1,4)          =      1.105126     0.000062     0.000014     1.105141
	    3 R(1,5)          =      1.115678    -0.000018    -0.000002     1.115675
	    4 R(1,6)          =      1.102931    -0.000017    -0.000004     1.102926
	    5 R(2,3)          =      1.411823    -0.000000    -0.000000     1.411823
	    6 R(2,7)          =      1.106056    -0.000186    -0.000031     1.106025
	    7 R(2,8)          =      1.104114    -0.000052    -0.000011     1.104102
	    8 R(2,9)          =      1.118347     0.000048     0.000018     1.118365
	    9 R(3,10)         =      1.019984    -0.000000     0.000000     1.019984
	   10 B(1,3,2)        =    115.890394    -0.000000    -0.000000   115.890394
	   11 B(1,3,10)       =    109.743229    -0.000000    -0.000000   109.743229
	   12 B(2,3,10)       =    113.650433     0.000000    -0.000000   113.650433
	   13 B(3,1,4)        =    109.495929     0.000001     0.005996   109.501925
	   14 B(3,1,5)        =    114.226276    -0.000001    -0.003904   114.222373
	   15 B(3,1,6)        =    109.562712    -0.000000    -0.001351   109.561361
	   16 B(3,2,7)        =    109.739043     0.000001     0.005479   109.744522
	   17 B(3,2,8)        =    110.147224    -0.000001    -0.003531   110.143693
	   18 B(3,2,9)        =    115.116466    -0.000001    -0.007086   115.109380
	   19 B(4,1,5)        =    107.359621    -0.000000    -0.000121   107.359500
	   20 B(4,1,6)        =    107.664792    -0.000000    -0.000556   107.664236
	   21 B(5,1,6)        =    108.315301     0.000000     0.000061   108.315362
	   22 B(7,2,8)        =    107.081194    -0.000000     0.003651   107.084845
	   23 B(7,2,9)        =    106.787850     0.000000     0.002682   106.790532
	   24 B(8,2,9)        =    107.622265     0.000000    -0.000376   107.621889
	   25 D(1,3,2,7)      =    -62.519333    -0.000000    -0.040159   -62.559492
	   26 D(1,3,2,8)      =    179.832042    -0.000000    -0.045808   179.786234
	   27 D(1,3,2,9)      =     57.952441    -0.000000    -0.037431    57.915010
	   28 D(2,3,1,4)      =     62.485194    -0.000000    -0.000153    62.485040
	   29 D(2,3,1,5)      =    -57.938399    -0.000000    -0.001738   -57.940137
	   30 D(2,3,1,6)      =   -179.647085     0.000000     0.001910  -179.645175
	   31 D(4,1,3,10)     =   -167.126803    -0.000000    -0.000153  -167.126957
	   32 D(5,1,3,10)     =     72.449604    -0.000000    -0.001738    72.447866
	   33 D(6,1,3,10)     =    -49.259082     0.000000     0.001910   -49.257172
	   34 D(7,2,3,10)     =    168.982961    -0.000000    -0.040159   168.942802
	   35 D(8,2,3,10)     =     51.334336    -0.000000    -0.045808    51.288528
	   36 D(9,2,3,10)     =    -70.545266    -0.000000    -0.037431   -70.582696
	   37 *R(3,X)         =     -0.442200    -0.000000    -0.000000    -0.442200
	   38 *R(3,Y)         =     -0.070700    -0.000000    -0.000000    -0.070700
	   39 *R(3,Z)         =      0.319300     0.000000     0.000000     0.319300
	   40 *R(1,X)         =     -0.476800     0.000000     0.000000    -0.476800
	   41 *R(1,Y)         =     -0.152900     0.000000     0.000000    -0.152900
	   42 *R(1,Z)         =     -1.127900     0.000000    -0.000000    -1.127900
	   43 *R(10,X)        =     -1.075500     0.000000     0.000000    -1.075500
	   44 *R(10,Y)        =      0.662600    -0.000000     0.000000     0.662600
	   45 *R(10,Z)        =      0.638000     0.000000    -0.000000     0.638000
	   46 *R(2,X)         =      0.841800    -0.000000     0.000000     0.841800
	   47 *R(2,Y)         =     -0.003000    -0.000000     0.000000    -0.003000
	   48 *R(2,Z)         =      0.902400    -0.000000    -0.000000     0.902400
	 ---------------------------------------------------------------------------
	Successfully symmetrized geometry.

  ==> Convergence Check <==

  Measures of convergence in internal coordinates in au.
  Criteria marked as inactive (o), active & met (*), and active & unmet ( ).
  ---------------------------------------------------------------------------------------------
   Step     Total Energy     Delta E     MAX Force     RMS Force      MAX Disp      RMS Disp   
  ---------------------------------------------------------------------------------------------
    Convergence Criteria    1.00e-06 *    3.00e-04 *             o    1.20e-03 *             o
  ---------------------------------------------------------------------------------------------
      8    -134.53609416   -2.47e-07 *    2.25e-05 *    5.84e-06 o    8.00e-04 *    2.57e-04 o  ~
  ---------------------------------------------------------------------------------------------


  **** Optimization is complete! (in 8 steps) ****

  ==> Optimization Summary <==

  Measures of convergence in internal coordinates in au.
  --------------------------------------------------------------------------------------------------------------- ~
   Step         Total Energy             Delta E       MAX Force       RMS Force        MAX Disp        RMS Disp  ~
  --------------------------------------------------------------------------------------------------------------- ~
      1    -134.507914778072   -134.507914778072      0.06532188      0.01382749      0.05969715      0.01443534  ~
      2    -134.516197219315     -0.008282441243      0.04795949      0.01035675      0.20592520      0.04352943  ~
      3    -134.531279291102     -0.015082071787      0.01840620      0.00441259      0.14170797      0.05779359  ~
      4    -134.535573950512     -0.004294659410      0.01352527      0.00225778      0.07158097      0.01940744  ~
      5    -134.535954321375     -0.000380370863      0.00847005      0.00124200      0.03718854      0.00984173  ~
      6    -134.536076711938     -0.000122390563      0.00248442      0.00043543      0.00847771      0.00228097  ~
      7    -134.536093916883     -0.000017204945      0.00015634      0.00003753      0.00155538      0.00059873  ~
      8    -134.536094163850     -0.000000246968      0.00002254      0.00000584      0.00079950      0.00025720  ~
  --------------------------------------------------------------------------------------------------------------- ~

	Writing optimization data to binary file.
	Final energy is   -134.5360941638504
	Final (previous) structure:
	Cartesian Geometry (in Angstrom)
	    C    -0.4768000000  -0.1529000000  -1.1279000000
	    C     0.8418000000  -0.0030000000   0.9024000000
	    N    -0.4422000000  -0.0706999999   0.3193000000
	    H     0.0204632420  -1.0835375624  -1.4564535531
	    H     0.0285699407   0.6956411520  -1.6468561396
	    H    -1.5243515709  -0.1942452620  -1.4705106116
	    H     1.4059492825  -0.9259842660   0.6717586187
	    H     0.7575186761   0.0594634643   2.0015188280
	    H     1.4731210109   0.8550335639   0.5619403540
	    H    -1.0755000000   0.6626000000   0.6380000000
	Saving final (previous) structure.
			--------------------------
			 OPTKING Finished Execution 
			--------------------------

    Final optimized geometry and variables:
    Molecular point group: c1
    Full point group: C1

    Geometry (in Angstrom), charge = 0, multiplicity = 1:

    C           -0.476800000003    -0.152900000026    -1.127899999997
    C            0.841799999993    -0.003000000029     0.902400000002
    N           -0.442199999969    -0.070699999910     0.319299999981
    H            0.020463242022    -1.083537562420    -1.456453553129
    H            0.028569940692     0.695641151971    -1.646856139607
    H           -1.524351570881    -0.194245261953    -1.470510611567
    H            1.405949282547    -0.925984265964     0.671758618687
    H            0.757518676113     0.059463464325     2.001518827957
    H            1.473121010925     0.855033563853     0.561940353964
    H           -1.075500000021     0.662599999966     0.638000000014

	Cleaning optimization helper files.

*** Psi4 exiting successfully. Buy a developer a beer!
